ITEM: TIMESTEP
8000000
ITEM: NUMBER OF ATOMS
2553
ITEM: BOX BOUNDS pp pp pp
0.0000000000000000e+00 1.5000000000000000e+02
0.0000000000000000e+00 1.5000000000000000e+02
0.0000000000000000e+00 2.8837799999999999e+02
ITEM: ATOMS id xu yu zu 
3886 73.9998 74.3826 27.4736 
4240 74.8977 75.197 69.6828 
4141 73.7169 75.3624 57.0491 
3658 74.1917 74.7249 3.91477 
4162 73.6327 74.5984 61.2265 
4825 74.3021 74.9382 134.172 
4525 74.6606 74.7942 101.439 
4562 74.6059 74.8333 104.254 
4826 74.2609 74.9298 132.659 
4280 75.0198 74.8858 74.868 
4250 74.4676 75.1738 72.2303 
4598 75.0732 74.8005 106.878 
4421 73.3495 74.9732 89.3437 
4511 74.6178 74.727 98.741 
5089 73.3582 74.8866 165.702 
5378 74.7744 74.7586 195.385 
5467 74.0182 75.0034 209 
4898 74.7946 75.3808 144.28 
5435 74.6831 75.1524 206.529 
5516 74.5767 75.1717 213.867 
5008 74.7776 74.8628 153.941 
5879 74.5647 75.102 256.166 
5708 74.5143 74.6865 235.764 
5866 74.573 75.286 253.481 
5569 74.64 75.1614 221.221 
3654 72.2651 79.0161 2.33994 
3639 72.6236 76.5471 2.91491 
3656 71.6783 79.4108 1.69489 
3641 72.6478 76.3831 3.85765 
3625 72.0154 76.6335 1.44146 
3640 72.5781 77.5001 2.83816 
3655 73.0145 79.6104 2.37787 
3648 74.0202 80.5093 3.55203 
3677 73.1498 78.3881 4.87211 
3675 72.2911 78.8102 4.90046 
3621 74.0524 80.5205 0.818454 
3676 72.1587 79.1445 4.01337 
3660 72.7537 76.2817 5.7291 
3649 74.4975 80.5934 2.72658 
3661 72.2228 77.0698 5.61394 
3669 73.5374 80.3743 6.34085 
3671 74.4086 79.9785 6.31704 
3670 73.0696 79.969 5.61071 
3761 73.075 75.6334 15.308 
3627 74.4153 75.2412 1.71948 
3721 73.8736 75.403 10.8386 
3624 72.2436 76.5961 0.5126 
4051 74.949 78.2212 47.8392 
3622 74.5223 79.7313 1.08766 
3628 73.5952 75.4938 2.14354 
4109 73.3442 75.4398 54.5367 
4018 73.9688 78.7521 44.6231 
3679 74.5388 75.4601 7.57843 
4253 73.9634 78.4212 71.4207 
4160 74.9834 75.3631 62.8728 
6170 72.8676 79.6793 288.335 
3798 74.8854 77.7453 19.1808 
3650 73.7064 81.3941 3.73902 
3878 74.6229 80.9234 27.927 
3957 74.899 77.9798 36.7436 
3662 72.5026 75.9468 6.58993 
3682 72.4965 79.0185 7.12792 
3683 71.7255 78.6403 8.37469 
3729 74.7352 78.0363 11.4845 
3700 72.7326 76.8051 8.03873 
3681 72.0951 78.2717 7.57229 
3699 73.0647 75.9471 8.30293 
3702 72.0989 78.1272 10.1741 
3704 72.6664 77.361 10.2583 
3698 73.7554 79.4159 9.03727 
3696 73.3466 80.2774 8.95458 
3703 71.7109 78.2352 11.0424 
3720 73.1137 75.9536 11.0274 
3708 73.3385 80.2309 11.5706 
3710 72.8056 80.2686 10.7764 
3709 73.9885 79.5514 11.3915 
3732 72.2292 78.3575 12.9288 
3697 73.276 80.4199 8.01069 
3734 72.1504 79.2705 12.6523 
3701 72.6881 75.8008 9.1707 
3722 72.9372 75.8085 11.957 
4210 73.7473 75.0034 66.3934 
3969 74.4495 75.4022 37.8608 
3736 74.5981 80.3429 12.8264 
3784 74.7897 78.3656 15.7996 
3964 74.1558 75.3293 39.8668 
3947 74.4741 74.8864 34.5265 
3909 74.6312 78.0472 31.7114 
3719 74.8387 80.8388 10.0854 
4170 74.7442 80.7028 62.4282 
3748 74.143 75.9977 13.1966 
3733 71.7443 78.3137 13.7529 
3749 73.0867 76.9816 13.6527 
3728 72.8691 80.3545 15.4454 
3727 72.9558 79.3601 14.3071 
3747 73.2747 76.0447 13.5967 
3754 71.4659 78.5783 15.8731 
3753 72.1241 78.0466 15.4256 
3755 72.3403 77.3554 16.0516 
3759 73.1815 75.823 16.2402 
3726 73.1252 80.2763 14.5264 
3778 73.8433 80.1805 17.6143 
3777 72.9904 79.9761 17.2307 
3779 72.9384 79.0206 17.2568 
3771 72.2903 77.7092 18.181 
3773 73.0085 77.0921 18.3208 
3772 71.8705 77.7868 19.0378 
3760 74.0164 76.2877 16.2967 
3797 72.6894 80.0815 19.2018 
3796 73.6106 78.9164 19.4947 
3774 73.3711 75.5256 18.7672 
4163 74.557 75.2402 60.2138 
3713 75.0574 76.231 9.40938 
3802 74.5498 80.3057 15.2724 
3795 73.0585 79.571 19.9224 
3775 72.8119 75.7637 19.5067 
6172 74.3543 76.9045 289.471 
3829 74.4934 80.2226 20.6105 
3788 72.0533 76.8958 21.6843 
3786 72.3768 77.0058 20.7901 
3787 73.2879 77.2795 20.8965 
3837 72.5011 76.8809 23.6674 
3813 72.7554 79.3255 22.4263 
3839 72.3123 76.7612 24.5982 
3814 72.6054 79.3876 21.483 
3832 72.3921 79.998 24.3658 
3838 72.3542 77.8137 23.5108 
3815 73.4289 79.9816 22.6059 
3831 72.6511 79.3812 25.0505 
3833 73.4018 79.7959 25.4755 
3840 72.6082 76.7585 26.1121 
3946 74.1049 76.2438 35.0859 
3825 74.8882 78.0852 24.2336 
4116 74.8982 78.0559 54.2119 
4256 72.1187 77.8809 71.6505 
3842 72.7087 77.7103 26.0948 
4022 74.7248 75.5697 48.1334 
3730 75.037 78.0897 10.5777 
4142 74.4697 75.3065 58.3614 
3731 73.9542 77.4843 11.4454 
3914 74.6104 75.0074 31.7397 
3847 73.6248 75.7145 22.7534 
3819 74.6762 80.6384 23.5141 
3841 73.4353 76.4363 26.4703 
3852 74.6852 80.5639 26.1406 
3885 74.2302 75.2998 27.3255 
3910 73.9279 77.4031 31.7933 
3880 73.8364 75.9705 30.125 
4054 73.441 75.4007 52.0132 
3863 73.1416 79.8727 27.6667 
3861 72.4809 79.2026 27.4917 
3862 72.1186 79.44 26.6381 
3872 72.7379 77.7768 28.8089 
3870 72.5673 76.8356 28.8451 
3871 72.0376 76.6576 28.0679 
3894 72.3377 79.2566 30.0449 
3895 72.9896 79.9139 30.2883 
3896 72.2396 79.3551 29.0978 
3897 72.4632 76.5201 31.2489 
3898 72.3185 77.0233 30.4476 
3921 73.9268 80.568 31.5418 
3899 71.9311 75.7324 31.137 
3876 74.1554 80.7212 28.7375 
3879 74.5205 75.3096 30.0172 
3874 74.9038 79.1759 29.1817 
3912 74.4279 75.316 32.6273 
3920 72.1268 79.1846 32.1403 
3958 74.7137 78.1403 37.6689 
3877 73.9691 81.5757 29.1266 
3919 71.9398 77.9218 32.9539 
3918 72.4084 78.7564 32.9487 
3934 73.8406 79.6573 36.7349 
3930 74.0421 80.6218 34.2659 
3933 73.9798 80.5986 36.8387 
3927 72.441 76.3839 34.0435 
3928 72.8733 76.2014 33.2092 
3929 72.5192 75.5679 34.5378 
3926 72.4795 77.9391 35.7964 
3924 72.4942 78.8052 35.3893 
3948 72.3296 76.625 37.0194 
3925 72.4771 78.6286 34.4487 
3950 72.3321 77.5197 37.3597 
3955 72.3839 79.4385 37.2598 
3949 73.1695 76.26 37.2979 
3954 72.309 78.8902 38.0408 
3956 72.5862 79.4578 38.76 
4006 72.106 76.3689 38.681 
4007 72.5039 77.2295 39.8613 
3931 73.6434 80.9455 33.4582 
3932 73.837 79.6869 34.277 
4016 73.3799 81.4235 39.3094 
4005 72.5489 76.333 39.5288 
3935 73.9692 80.9427 35.9455 
3887 74.0338 75.7337 28.1558 
3940 74.8622 78.0557 35.1748 
4017 74.6209 78.1227 44.3154 
3875 74.7565 77.9788 30.0967 
4003 73.983 77.2776 41.8751 
3995 72.4797 76.6663 45.0677 
4015 74.5519 80.478 39.4663 
4014 73.6249 80.5772 39.6835 
3974 72.4616 76.0416 41.3004 
3981 73.358 80.495 42.3436 
3943 72.6806 79.339 40.5745 
3944 71.7603 78.8694 41.6811 
3973 73.506 75.6192 42.3117 
3942 72.0303 78.6688 40.785 
3972 72.7144 76.1491 42.2173 
3978 72.0233 78.2963 43.4904 
3979 72.1855 77.4952 42.9921 
3980 71.1942 78.1351 43.9407 
3993 72.8896 75.8061 44.9772 
4029 73.2079 80.1538 45.0406 
4030 73.0127 80.3287 44.1199 
3983 72.8824 79.6655 42.3006 
4031 74.0953 80.4899 45.1658 
3982 73.8817 80.5133 41.5426 
3994 72.577 75.4789 44.1337 
3776 72.7809 75.5156 18.0136 
3854 75.049 81.0346 25.3907 
3695 74.4022 77.1321 6.44104 
3953 75.0339 76.3903 43.6458 
3705 74.925 77.9575 9.03454 
3827 74.0284 77.7252 24.0156 
3873 74.9984 78.2236 29.2035 
6171 74.7339 77.7776 289.569 
3989 72.1707 78.8597 45.7562 
3659 74.6666 75.0995 5.30261 
3987 72.1487 78.0317 46.2358 
4072 73.8385 77.7979 49.0401 
4078 73.091 75.5292 49.2362 
3988 71.9706 78.2839 47.1419 
4060 73.3935 80.4455 47.0398 
4034 72.7376 80.3153 51.3955 
4035 73.1576 75.8301 47.557 
4059 73.0787 80.011 47.8324 
4023 72.0957 77.8545 48.8374 
4025 72.3873 78.7613 48.7429 
4024 71.8517 77.7757 49.7596 
4077 73.3916 75.5596 50.1445 
4032 72.829 79.6987 50.6691 
4061 73.4981 80.4865 48.5495 
4033 73.6759 79.9127 50.2778 
4083 72.1317 77.4174 51.4255 
4085 72.3907 78.3368 51.4874 
4036 72.682 76.5553 47.9621 
4084 71.7184 77.2274 52.2677 
4079 72.9006 76.282 50.5358 
4037 72.9891 75.9264 46.6197 
4071 74.7442 77.8314 49.348 
4108 74.5646 75.585 55.4207 
4009 74.9573 80.6909 43.2533 
4168 74.0814 77.3318 61.941 
4254 72.2535 78.8281 71.6224 
4055 73.5171 76.6645 52.8432 
4094 72.7465 79.9949 54.3254 
4053 73.7823 75.7448 52.8386 
4093 73.6741 80.275 53.1622 
4092 72.8363 79.8669 53.3811 
4105 72.3162 77.0381 54.8836 
4106 72.6528 78.1293 53.8897 
4107 73.6077 75.5903 55.4445 
4104 72.031 77.4203 54.0536 
4095 72.6662 79.8256 55.8389 
4097 73.5104 80.054 56.2281 
4096 72.5046 78.927 56.1265 
4164 72.2234 77.4249 56.7073 
4166 72.4615 76.6459 57.21 
4165 71.2813 77.3381 56.562 
4140 73.5933 75.4278 57.9961 
4176 72.6044 79.6398 58.4723 
4178 72.3708 80.0459 57.6377 
4177 72.211 78.768 58.4335 
4147 72.4786 76.3745 59.3438 
3693 74.7417 78.0271 6.44641 
3922 73.8957 79.6378 31.7654 
4135 73.6827 80.4146 59.6155 
4074 74.71 78.173 51.7934 
3826 74.8947 78.1288 25.1898 
4004 74.9049 78.1875 42.6587 
3945 74.5445 75.4249 35.3147 
4052 74.1886 78.0546 46.5408 
4251 74.6801 77.8625 71.7216 
4115 74.4973 80.7443 58.049 
3846 74.5599 75.5822 22.9098 
4167 74.6576 78.0533 61.6886 
4121 74.1383 77.7349 56.8232 
4172 75.0059 81.1286 63.2446 
4144 73.9387 77.4185 59.1719 
3939 74.9355 78.1064 34.2218 
4148 72.051 77.4244 60.3471 
3975 74.6555 78.1107 39.3144 
4161 73.7365 75.3815 60.686 
4158 74.1667 75.2776 63.3646 
4192 72.8546 78.3701 64.0391 
4146 72.2041 77.2889 59.412 
4156 72.3571 79.3747 60.2362 
4155 72.5809 79.5709 61.1459 
4175 72.7263 76.2176 61.5873 
4174 72.0897 76.7563 62.8508 
4173 72.3108 76.9992 61.9517 
4157 73.254 78.9288 61.3714 
4193 72.2458 79.1686 62.9061 
4191 72.7878 79.2588 63.6899 
4182 72.5822 76.8383 64.5962 
4183 73.1469 76.1292 64.2887 
4227 74.3688 80.6724 65.1259 
4228 73.6042 80.173 64.8391 
4171 73.9587 80.2062 62.6576 
3746 75.1524 77.8121 13.0222 
4257 72.706 76.5142 70.0347 
4002 74.7449 77.8488 41.7779 
3977 74.0644 77.3585 39.2825 
4221 74.6156 78.0379 66.8059 
4087 74.9868 81.2267 55.4237 
4218 72.5459 76.4254 67.2783 
4220 72.4594 76.3647 68.2297 
4209 74.5126 75.2486 65.8734 
4196 73.2672 78.8753 66.2112 
4247 74.794 80.623 69.9305 
4184 72.2812 76.549 65.4575 
4194 72.3656 79.1649 66.3512 
4237 71.939 78.7974 68.0612 
4239 74.6005 75.3835 68.7922 
4258 73.4687 76.0567 69.6808 
4219 73.3254 76.964 67.1421 
4255 72.4654 79.0133 70.7075 
4249 74.9025 76.2163 71.2223 
4246 73.3288 80.9733 69.7811 
4238 72.2403 77.8774 69.2251 
4215 74.3731 80.4408 67.7746 
4217 74.1556 80.567 66.8511 
4245 73.9495 80.552 70.3756 
4236 72.4286 78.7511 68.8823 
4248 74.8107 75.2711 71.342 
4195 72.0341 79.3507 65.4727 
4259 72.4841 76.0309 70.8305 
4216 73.7437 79.7887 68.0825 
4136 74.6664 80.9676 60.6247 
4113 74.8282 80.6354 57.1575 
4000 74.4725 75.5511 45.7043 
4226 75.1634 78.0394 70.2125 
4075 74.6762 77.9234 50.8699 
3672 74.8882 77.8231 3.82555 
3657 74.8255 75.2751 4.37516 
3856 74.9489 78.0435 27.6485 
3707 74.6261 77.9882 8.12571 
4134 74.6015 80.6618 59.72 
4119 75.0702 77.9376 56.7413 
3824 74.5853 78.5377 22.2525 
3963 74.869 75.3152 40.505 
3923 74.7548 80.6748 31.0735 
3976 74.7825 78.2767 40.2484 
4117 75.0882 78.9828 54.3569 
3673 74.9841 77.9237 2.87849 
4143 74.8659 77.6562 59.1831 
3758 74.7427 75.3548 18.1017 
3848 74.8787 75.1577 22.1133 
4076 74.8176 79.1241 51.7812 
3911 74.7506 78.3863 32.5986 
4202 74.9314 77.9629 63.3004 
3820 74.9905 79.8461 23.9498 
4118 74.9335 77.9495 53.2613 
4169 74.9868 77.8064 60.8243 
4225 75.2397 77.0275 69.0891 
4159 74.445 75.1479 64.2713 
3629 74.1784 75.1018 0.802592 
3971 74.6694 75.2587 36.9403 
3626 72.2231 77.5084 0.223532 
4290 72.3053 78.6428 74.4847 
4292 72.498 77.7555 74.7877 
4311 72.7525 76.2484 75.2654 
4291 71.7381 78.5186 73.7236 
4272 72.6197 76.3856 72.7478 
4303 71.8583 78.3515 76.3681 
4296 73.5348 80.3762 75.9466 
4281 73.8621 80.2392 73.1722 
4302 72.1741 78.1777 77.2548 
4304 72.5374 77.2932 77.2111 
4298 72.9525 79.8591 75.39 
4297 74.2495 80.6397 75.3669 
4314 73.0875 75.9344 77.8016 
4312 73.4573 75.7435 74.8597 
4313 72.8259 76.0548 76.2 
4283 73.2584 79.6387 73.6093 
4274 72.5223 76.3091 73.697 
4316 74.0217 75.8588 77.6074 
4319 72.7634 79.5024 78.382 
4282 73.4999 80.3456 72.2926 
4318 72.7713 81.0036 78.5772 
4273 73.4929 76.7581 72.6254 
4796 74.8424 77.9859 133.083 
4289 74.3565 79.0253 76.7146 
4454 74.4318 80.8217 92.6552 
4641 74.9992 77.9438 114.419 
4876 74.6437 75.1244 139.289 
4908 74.8019 80.7689 143.384 
4448 74.6153 75.3674 90.7527 
4317 73.3132 80.2227 78.6903 
4315 73.0037 75.6228 78.7028 
4337 72.0019 78.0041 78.9634 
4335 72.0992 77.9059 79.9106 
4336 72.6545 77.1334 80.0159 
4329 73.346 75.8489 80.5245 
4353 73.2545 79.9729 81.5159 
4356 72.0682 77.814 82.7768 
4358 71.7017 77.8275 81.8926 
4354 72.6321 79.4387 81.0224 
4357 72.5603 76.9941 82.8201 
4359 73.4051 75.7778 83.2309 
4362 73.0762 79.9144 84.1426 
4379 72.1595 77.5988 84.4475 
4355 73.9215 80.218 80.8747 
4364 73.5207 79.0815 84.3004 
4363 72.5837 79.7741 83.3338 
4331 74.1893 75.4358 80.3391 
4330 73.3329 75.9511 81.4761 
4333 74.4454 78.9625 79.2216 
4361 74.085 75.3123 82.7437 
4507 74.3759 75.1346 96.0295 
4700 73.7836 76.7092 119.782 
4701 74.9432 78.1267 122.111 
4287 74.8496 78.2049 76.7077 
4377 72.2761 77.4984 85.3922 
4406 74.4847 75.3142 85.5331 
4378 72.6066 76.6066 85.4999 
4404 73.5853 75.4493 85.8315 
4387 73.5367 78.9707 86.9564 
4386 72.8693 79.6464 86.8364 
4409 72.1444 77.4302 87.0202 
4408 72.9106 76.6322 88.0537 
4407 72.2456 77.3149 87.9651 
4413 72.96 79.6936 89.3457 
4419 73.6663 75.2631 88.4883 
4388 72.1972 79.227 86.2993 
4414 72.726 79.8225 88.4266 
4427 72.1048 77.1055 89.6488 
4415 72.8116 78.7611 89.5026 
4425 72.4228 77.2669 90.5371 
4403 74.2736 80.2774 88.6565 
4426 73.1258 76.6291 90.66 
4400 74.0755 80.4481 85.8028 
4446 73.9648 75.4123 91.4535 
4418 71.895 80.0855 91.7753 
4430 74.2403 79.9731 91.2197 
4420 74.5968 75.4411 88.6246 
4465 74.8867 77.8237 95.6815 
4429 74.5707 81.223 90.4321 
4417 72.5713 78.8622 91.1938 
4396 74.6802 77.8729 88.1901 
4267 75.0065 77.9649 75.1536 
4570 74.9494 77.8368 107.809 
4508 74.8341 75.8959 97.2552 
4642 74.9201 78.2129 115.334 
4765 73.806 75.2129 127.55 
4278 74.8273 75.3498 74.0532 
4596 74.8546 75.2285 107.706 
4300 74.7004 80.5017 77.7842 
4416 72.5622 79.4264 91.967 
4475 73.8754 80.0321 96.7486 
4506 74.1327 75.3289 96.9347 
4438 72.5694 77.984 92.6869 
4439 71.777 76.6943 92.6615 
4437 72.3416 77.2248 93.2235 
4455 72.306 79.3201 94.7493 
4456 72.2079 78.4739 94.3127 
4472 72.056 76.7178 95.1654 
4457 71.8428 79.2164 95.5805 
4476 74.0342 75.4576 94.1873 
4470 72.3272 76.9762 96.0463 
4471 73.0821 76.4197 96.2379 
4461 72.646 79.1332 97.375 
4453 73.5201 80.0719 93.6031 
4473 74.4711 80.6468 96.3202 
4462 72.1427 78.957 98.1699 
4490 72.1322 76.5895 97.8564 
4463 72.8894 78.2671 97.0481 
4466 73.7694 78.4922 94.9091 
4474 74.2067 80.6355 95.4003 
4405 73.6102 75.2488 86.7671 
4478 73.4124 76.0776 93.8063 
4369 74.457 80.2645 83.5713 
4452 74.3068 80.6167 93.5818 
4395 74.8336 77.7258 87.2568 
4653 74.8749 77.9157 116.982 
4850 74.9775 78.2872 140.578 
4725 74.9759 78.0019 124.638 
4375 74.4085 77.0976 84.5219 
4702 74.8513 77.8573 123.025 
4489 73.1936 75.8637 98.6555 
4488 72.5839 76.6002 98.7003 
4509 74.5451 75.1648 99.5891 
4524 74.5381 75.1935 102.3 
4542 74.277 80.665 101.668 
4486 72.1834 79.3406 100.905 
4487 72.2607 78.1407 99.9854 
4485 72.3859 79.0895 100.004 
4501 73.5049 76.1856 101.445 
4500 72.7312 76.678 101.171 
4502 72.4885 76.2941 100.329 
4527 72.6041 78.9899 102.569 
4528 72.85 78.2472 102.018 
4529 71.9852 78.6248 103.202 
4539 72.6263 76.6255 103.848 
4541 72.7377 76.5029 102.905 
4557 74.0703 80.7284 104.301 
4540 73.3614 76.1541 104.239 
4544 73.6167 80.0237 101.931 
4558 73.5667 79.9164 104.358 
4530 74.2141 80.7656 98.8206 
4559 74.0611 80.951 103.37 
4543 74.0407 80.8991 100.771 
4532 73.4575 80.2398 98.5612 
4505 73.9005 78.6483 99.5586 
4402 74.9576 80.8649 87.4404 
4875 74.7609 75.4029 138.381 
4560 74.5313 75.316 105.077 
4538 74.8943 77.548 105.289 
4464 74.6354 78.0993 94.8 
4849 74.0726 77.6864 139.523 
4655 74.2235 77.225 116.86 
4531 74.4028 81.3086 98.0552 
4764 74.247 75.2894 128.396 
4585 75.0408 77.8734 110.342 
4352 74.1395 78.656 81.6783 
4568 72.573 77.9202 104.76 
4566 72.4399 78.754 105.211 
4627 72.6131 75.8911 108.457 
4575 73.939 80.4968 106.888 
4577 73.3244 79.8484 107.232 
4580 72.2569 75.7644 106.091 
4567 72.2237 78.5084 106.111 
4579 73.6279 76.0838 106.648 
4578 72.717 76.3777 106.664 
4602 72.418 78.6447 107.946 
4603 72.1314 78.5617 108.856 
4604 72.7273 77.7699 107.711 
4626 72.8912 76.1715 109.329 
4628 73.8128 75.9179 109.381 
4605 73.7833 80.5455 109.492 
4606 73.3897 79.6866 109.339 
4607 73.5141 81.071 108.739 
4612 72.7571 77.6103 110.186 
4611 72.4221 78.4189 110.574 
4576 73.7246 80.5612 105.957 
4648 72.9077 76.0047 111.084 
4871 74.6714 78.1138 142.979 
4428 74.9231 80.6328 91.0982 
4809 74.9416 77.897 137.095 
4434 74.9078 77.8823 92.341 
4690 72.7068 75.5993 113.887 
4600 74.3084 78.893 111.972 
4678 74.7334 80.4644 116.169 
4676 73.224 75.5895 116.516 
4630 73.2664 80.5186 111.174 
4613 72.0209 78.142 111.398 
4675 73.7665 75.3529 117.91 
4691 73.4836 76.7993 114.386 
4649 73.8104 75.8286 112.286 
4647 72.9118 76.048 112.04 
4667 71.3564 78.1441 113.414 
4666 72.4892 77.2991 112.871 
4689 72.8521 76.1368 114.666 
4683 73.4262 80.2569 114.832 
4665 72.2706 78.193 113.134 
4629 73.4252 80.3281 112.099 
4685 73.0686 79.4033 115.076 
4684 73.2116 80.3503 113.904 
4662 72.2919 78.2129 115.998 
4663 72.4956 77.3646 115.604 
4664 72.1731 78.023 116.928 
4631 72.872 79.5697 112.286 
4674 73.1021 75.8475 117.43 
4660 72.7755 80.5189 116.998 
4659 73.3641 80.1547 117.66 
4661 73.5741 79.2782 117.337 
4715 73.5407 76.0826 122.078 
4754 74.2304 78.6956 126.824 
4793 73.7761 75.1931 130.114 
4870 73.8757 77.4096 141.9 
4714 74.4703 75.6102 123.175 
4374 74.8215 77.9457 84.6844 
4712 74.3898 80.4743 121.093 
4721 72.5135 77.0793 118.175 
4699 74.0262 75.2685 120.179 
4720 71.559 77.6277 119.214 
4719 72.2321 77.8954 118.588 
4704 73.0522 79.8223 120.213 
4669 72.3637 76.8867 120.97 
4668 72.0319 77.732 121.272 
4698 73.3717 75.9656 120.222 
4670 71.5355 77.5252 122.064 
4705 72.9974 80.0415 119.283 
4706 72.6417 78.9603 120.281 
4713 73.5461 75.7672 122.981 
4755 72.7222 79.8787 122.842 
4757 72.9566 79.1799 122.232 
4733 72.8145 76.9004 123.729 
4756 71.9147 80.2485 122.485 
4731 72.1509 77.533 124.004 
4732 72.4935 78.3798 123.718 
4718 73.912 80.5517 123.82 
4853 73.436 76.3093 138.545 
4693 74.612 80.5555 118.569 
4752 74.7656 77.9471 127.088 
4739 73.0494 75.5668 125.003 
4824 74.6084 75.4201 133.404 
4753 74.9655 78.1083 128.01 
4789 74.3572 79.946 131.235 
4503 74.7826 78.2771 99.5787 
4744 72.2796 77.2193 127.81 
4745 73.2158 76.327 128.597 
4775 74.1241 80.0202 128.726 
4779 73.614 80.3874 126.255 
4759 71.752 78.0562 125.595 
4758 72.1584 78.304 126.426 
4760 72.8071 78.9663 126.187 
4743 72.4499 76.893 128.694 
4781 74.1649 80.6755 125.527 
4768 72.8122 78.5318 128.947 
4767 72.5658 79.4398 128.771 
4769 72.2477 79.4313 127.868 
4784 71.9146 77.5379 130.145 
4737 73.3512 75.9813 125.811 
4790 73.0785 79.9181 130.425 
4791 73.5891 75.4749 131.009 
4782 72.2195 77.9016 130.976 
4738 73.1909 76.9153 125.676 
4780 73.9406 80.8752 127.011 
4432 75.1729 77.8459 90.8494 
4716 74.8281 80.6311 124.085 
4882 72.5248 78.3358 141.033 
4842 72.6378 79.2045 138.489 
4332 74.9992 78.1819 79.2289 
4794 74.8891 77.8619 132.135 
4792 73.1299 76.3086 130.907 
4788 73.4977 80.361 131.163 
4795 73.9779 77.7553 131.862 
4727 75.0487 78.3107 125.541 
4834 73.1944 76.3026 133.322 
4846 73.3488 76.1656 135.717 
4835 72.3011 77.1744 134.179 
4783 71.5605 77.6276 131.614 
4831 72.6508 79.7908 135.066 
4832 73.9151 79.95 135.884 
4829 72.6553 79.8407 132.566 
4833 72.4535 76.9066 133.272 
4827 72.745 79.5479 133.473 
4828 72.8592 78.5997 133.409 
4821 72.2225 77.2846 135.766 
4822 72.127 76.809 136.591 
4830 72.9699 79.8242 135.968 
4823 72.6851 78.088 136.004 
4845 73.9485 75.4271 135.823 
4813 74.317 79.9781 133.635 
4844 72.7113 79.5314 137.593 
4874 74.4005 75.2176 141.887 
4869 74.6501 77.9558 142.035 
4350 74.8958 78.1045 81.8786 
4851 72.5718 76.7026 138.424 
4873 73.2554 75.7341 141.042 
4867 74.1779 79.7227 140.855 
4905 72.5867 79.2337 143.441 
4815 74.8125 78.1377 134.623 
4906 72.7005 78.2917 143.568 
4599 74.8956 78.1376 111.943 
4883 71.859 77.1678 141.729 
4907 72.8739 79.3914 142.542 
4673 74.3333 78.8404 119.58 
4862 74.068 80.1626 138.452 
4881 72.3001 77.4127 140.915 
4866 73.2327 79.8201 140.971 
4843 72.72 78.2545 138.406 
4878 72.8484 76.6414 143.555 
4879 73.649 76.1187 143.6 
4910 74.0841 80.1359 143.367 
4872 74.1629 75.4347 140.985 
4868 72.8934 79.9416 140.085 
4852 72.1714 76.6745 139.293 
4817 74.6134 78.055 135.556 
4633 74.9488 80.1897 113.589 
4909 74.8619 81.0874 142.483 
4435 74.7026 77.9766 93.2712 
4334 74.7407 77.7117 80.0216 
4376 74.9052 77.9934 85.6367 
4671 74.8932 78.0647 119.611 
4436 74.6365 76.9903 92.1246 
4614 74.9306 75.2916 110.386 
4493 74.8538 77.8186 97.9933 
4477 74.7283 76.007 94.5514 
4814 74.7081 81.3642 133.169 
4860 74.8854 80.6575 138.509 
4771 75.191 77.9033 130.522 
4504 74.9238 78.0436 100.496 
4252 74.7992 78.0996 72.6413 
4360 73.3344 75.302 84.0584 
4847 73.9542 75.2554 136.765 
4447 74.4461 75.167 92.2437 
4928 72.7767 78.1787 145.985 
4926 72.2617 77.3719 145.981 
4945 72.6125 78.2044 148.309 
4944 72.5984 79.1601 148.362 
4946 72.4834 79.4484 147.456 
4929 73.0421 79.8263 145.907 
4927 72.1661 77.1439 146.906 
4911 72.7799 76.4928 148.289 
4913 73.658 76.1425 148.439 
4931 72.7499 79.8242 144.996 
4958 72.842 79.9953 150.229 
4880 72.5671 76.7284 144.466 
4912 72.373 76.4993 149.155 
4917 74.1463 75.4583 145.952 
4930 73.9972 79.7938 145.853 
4957 74.1273 80.1103 151.02 
4939 74.0706 79.9875 148.099 
5156 74.9806 77.6598 172.6 
4918 74.4707 75.0556 146.757 
4938 74.8146 80.5806 148.203 
5090 74.1393 75.2127 164.447 
4919 73.2267 75.652 146.134 
5154 74.9196 77.8684 171.668 
4953 74.0663 75.5002 150.64 
5119 74.1161 81.242 167.468 
4943 72.6653 78.1889 150.669 
4956 73.25 79.7289 151.053 
4941 72.1563 77.3791 150.705 
4942 71.7711 77.3765 151.581 
5002 72.3142 77.0666 156.571 
4963 72.8056 78.2891 153.538 
4962 72.5806 79.2191 153.51 
4964 72.4373 79.4034 152.582 
5003 72.6708 78.2795 155.738 
5001 72.4998 77.34 155.672 
5004 73.1933 79.9295 155.901 
5005 73.0216 79.7461 154.977 
4959 72.58 76.4831 153.132 
4960 73.416 76.0372 153.267 
4961 72.2107 76.5729 154.01 
4998 74.3806 75.5045 155.542 
5000 73.7531 76.2273 155.541 
4991 73.9403 80.4269 153.077 
5006 74.1285 80.1305 155.936 
4954 74.063 75.0747 151.498 
4916 74.4129 77.0781 146.891 
5316 74.9922 78.0524 191.927 
5118 74.7579 80.7338 167.964 
5330 74.868 78.4325 195.283 
5497 75.1051 77.9523 212.728 
5152 74.812 80.4927 172.779 
4989 74.8685 80.6046 153.229 
4999 74.6169 75.3927 156.463 
5033 72.5576 79.6721 157.673 
5025 74.938 80.5723 158.285 
5029 74.1303 80.4844 160.586 
5063 73.4585 76.2332 162.848 
5022 72.8013 76.5911 158.154 
5032 72.8033 78.2447 158.113 
5047 72.2332 77.4861 161.588 
5046 72.4597 77.697 160.683 
5048 72.5213 78.6521 160.667 
5031 72.6641 79.1285 158.453 
5028 73.2743 80.0779 160.722 
5074 72.7107 78.5372 163.3 
5073 72.7949 79.4891 163.244 
5075 72.9998 79.6588 162.325 
5061 72.7391 76.8348 163.04 
5030 73.0185 79.7624 159.855 
5023 72.3393 76.6483 158.991 
5024 73.6197 76.1406 158.362 
5045 73.7072 76.4475 160.609 
5043 73.9888 75.5498 160.433 
5317 74.7434 78.9568 191.736 
5080 74.1536 80.2924 163.082 
5026 74.1427 80.0408 158.251 
5300 74.6855 78.8571 189.448 
5445 74.9334 80.5853 205.661 
5121 75.0362 75.2929 168.019 
5035 74.1768 78.3816 159.268 
5199 74.9696 78.0002 179.062 
5122 74.2801 75.6879 167.585 
5062 71.9814 76.2665 163.178 
5318 75.0654 78.0201 192.881 
5493 75.0634 78.0822 214.235 
5092 72.4808 77.1442 164.96 
5093 72.6546 78.6125 165.285 
5091 72.1908 77.8243 165.568 
5106 72.8634 76.6239 167.614 
5109 72.6614 79.386 168.076 
5110 73.5957 79.5755 167.99 
5111 72.2706 79.7391 167.277 
5104 73.1078 80.2357 164.753 
5103 73.4014 80.1994 165.663 
5133 72.268 77.7805 169.99 
5107 72.4361 76.9789 166.834 
5135 72.336 78.5508 169.426 
5108 72.2063 76.704 168.305 
5088 73.9082 75.5632 165.307 
5041 74.7852 74.9721 158.916 
5105 74.3559 80.1576 165.606 
5150 73.0985 80.2522 169.708 
5077 74.0634 77.8829 166.767 
4972 74.3379 76.9942 151.886 
4971 74.9643 77.7064 152.014 
5437 73.7189 77.9389 206.793 
5117 74.3922 77.5827 168.819 
4914 74.8489 77.9252 146.983 
5131 73.0711 75.6837 173.808 
5127 73.797 75.7396 170.226 
5149 74.4292 80.221 170.429 
5129 73.1481 76.4382 170.142 
5148 73.4848 80.1851 170.581 
5134 72.147 78.1373 170.87 
5396 74.815 77.7592 200.429 
5161 73.6965 77.1127 175.96 
5146 72.825 77.816 172.736 
5130 72.9869 76.1828 172.996 
5145 72.4907 78.6322 172.364 
5147 73.2217 78.9804 171.853 
5171 72.5243 79.0064 174.005 
5169 72.4327 78.8045 174.936 
5170 72.4746 77.8492 174.98 
5160 72.9795 76.5349 175.698 
5151 74.1443 80.4074 173.46 
5181 73.904 80.43 176.217 
5192 72.0116 78.3341 176.567 
5182 73.4291 79.6007 176.162 
5183 73.6865 80.8856 175.404 
5162 72.6692 76.1516 176.519 
5153 73.3139 80.5164 172.996 
5158 74.4302 75.9956 174.786 
4955 73.399 76.183 150.709 
5132 72.3309 75.7055 172.488 
5270 74.3455 78.6879 186.992 
5377 74.587 75.3219 196.778 
5491 72.8629 77.9321 210.256 
5176 74.7181 78.8844 173.88 
5344 74.6399 80.9645 190.589 
5460 74.9957 77.9237 209.333 
5512 72.2271 76.7709 213.806 
5225 72.7942 75.9537 181.984 
5191 72.7387 77.6989 177.733 
5190 72.2599 78.4877 177.478 
5224 73.9066 76.0317 180.96 
5188 73.0816 75.6078 179.142 
5249 73.4059 80.6678 178.08 
5248 73.1814 79.675 179.201 
5247 73.7251 80.4212 178.948 
5214 72.4433 78.4507 180.243 
5216 72.8416 77.5876 180.355 
5215 71.9606 78.3869 179.418 
5187 73.045 76.1375 178.345 
5189 73.74 75.7843 177.79 
5223 72.9594 76.1295 181.058 
5237 73.9401 79.441 181.714 
5235 73.9501 80.3978 181.741 
5242 72.2047 78.413 181.966 
5241 72.3855 78.2358 182.889 
5243 72.4412 77.2818 182.944 
5236 73.3717 80.6637 181.026 
5288 73.3221 80.5452 183.384 
5128 74.0377 75.5264 169.324 
5364 74.752 80.5739 195.733 
5490 72.4928 78.7973 210.431 
5526 74.611 75.2463 215.619 
4890 74.9672 78.1923 144.473 
5487 72.9518 76.2987 210.458 
5201 74.715 77.0778 179.036 
5372 73.9032 75.3558 199.343 
5095 74.7478 75.4205 162.015 
5328 75.0155 77.8165 194.565 
5284 73.2018 75.7362 187.315 
5266 72.8108 75.684 184.539 
5285 73.9766 75.5098 186.034 
5267 73.7917 75.5958 183.389 
5265 72.9347 75.9493 183.628 
5287 73.1108 79.5178 184.476 
5076 74.9769 78.1625 166.827 
5290 74.3111 75.6984 188.57 
5306 73.9562 80.321 186.34 
5305 72.5215 79.8458 186.429 
5286 73.5099 80.3712 184.306 
5263 72.1026 78.1386 184.551 
5262 72.4213 78.1851 185.452 
5264 72.5117 77.2712 185.722 
5283 73.1478 75.8546 186.367 
5304 73.2894 80.0393 186.966 
5276 73.3839 78.0437 188.488 
5274 72.4569 77.9141 188.288 
5333 72.6267 79.934 188.958 
5291 73.1475 76.6057 188.909 
5275 72.4171 77.9041 187.331 
5289 73.4143 75.6865 188.905 
5331 73.3368 80.0217 189.594 
5246 74.0185 77.9109 184.334 
5398 74.2983 75.0681 201.649 
5524 73.3434 76.3488 215.402 
5044 74.944 75.6005 160.398 
5488 73.8578 76.0543 210.646 
5094 74.8323 75.5049 162.965 
5279 74.98 75.7576 190.934 
5332 73.0665 79.4757 190.332 
5321 71.874 77.7919 190.453 
5354 73.5179 75.4841 193.072 
5522 72.9739 79.373 214.461 
5311 73.315 75.6139 190.548 
5353 74.8111 75.7682 193.806 
5352 73.9012 75.5073 193.949 
5320 72.1963 77.8889 191.929 
5345 74.2933 80.7041 192.039 
5312 73.4999 76.9071 191.313 
5319 72.3681 78.3112 191.088 
5310 73.3918 75.964 191.435 
5322 72.3629 77.6673 193.532 
5337 73.3505 80.1896 193.297 
5323 72.2715 78.0947 194.383 
5324 73.0641 77.028 193.658 
5339 72.6633 80.5275 193.871 
5346 72.6438 79.1819 195.822 
5340 72.6698 76.5267 195.971 
5338 73.2718 79.2379 193.363 
5348 73.3888 79.7812 195.777 
5342 71.8083 76.24 195.668 
5347 72.9866 78.4055 196.264 
5341 73.289 76.0617 195.408 
5521 72.613 78.5562 215.684 
5514 74.4251 75.4162 212.954 
5115 75.0123 78.2221 169.17 
5314 74.5956 80.6564 188.813 
5520 72.751 79.4562 215.389 
5495 74.9768 77.9146 215.173 
5498 74.2663 78.8263 211.82 
5394 74.8997 78.0011 199.507 
5371 73.8406 76.6469 198.555 
5392 74.3612 80.0644 200.579 
5404 73.3555 76.3973 200.842 
5381 73.7922 80.884 197.463 
5379 73.4286 80.333 198.157 
5405 72.1575 77.05 201.498 
5387 72.3951 77.2394 197.357 
5386 72.2711 77.2143 198.866 
5385 72.2861 77.8108 198.117 
5403 72.5332 76.8445 200.642 
5409 72.8868 79.345 200.68 
5410 72.6644 79.7204 199.828 
5411 72.6306 78.4253 200.612 
5380 72.6594 79.9243 197.76 
5414 73.196 79.7803 202.213 
5370 73.8889 75.6968 198.449 
5395 74.1296 78.5409 199.329 
5510 72.4801 79.4841 212.002 
5474 74.701 80.8717 209.746 
5462 75.0104 77.882 210.289 
5034 74.9821 77.8709 159.351 
5473 73.5908 80.07 210.392 
5175 75.0129 77.9973 174.086 
5496 74.9127 78.1206 211.805 
5419 73.5017 76.314 203.268 
5413 74.3378 80.0869 203.158 
5418 73.9932 75.4954 203.335 
5439 72.3713 77.5036 203.113 
5441 72.7553 78.3792 203.069 
5412 73.3967 79.9127 203.139 
5397 74.7284 75.2772 200.82 
5436 74.6687 77.8667 206.888 
5468 73.4562 76.0415 208.052 
5447 74.2198 79.9801 205.459 
5449 73.8687 79.9992 208.117 
5448 72.9694 79.6779 208.052 
5440 72.4432 77.2567 204.036 
5452 72.1473 76.3355 206.292 
5453 73.5522 76.3048 205.729 
5451 72.6476 76.5134 205.496 
5464 72.5688 79.552 204.713 
5465 72.3527 78.2546 205.463 
5463 72.6199 79.1653 205.587 
5444 72.4312 78.1199 208.067 
5442 72.232 77.1905 207.955 
5450 72.7554 79.7507 207.122 
5443 72.1091 76.8621 208.846 
5466 74.182 75.4263 208.157 
5489 72.6276 76.6696 211.278 
5523 72.5545 76.8832 215.493 
5155 75.1018 77.04 171.224 
5472 74.3956 80.5474 210.593 
5492 72.2328 79.1257 209.57 
5519 74.3996 80.0144 215.501 
4952 74.4095 78.7845 149.566 
5509 73.5041 80.4177 212.611 
5508 72.9657 79.6515 212.809 
5515 73.6807 76.0171 212.987 
5511 72.4631 77.0816 212.932 
5513 72.785 77.972 213.072 
5144 74.7283 75.135 171.718 
4891 74.6015 78.1019 145.353 
4977 74.9176 78.1396 154.517 
5438 74.831 78.037 207.815 
5401 75.0747 77.9251 202.998 
5056 75.0303 78.0026 162.755 
5358 74.9924 78.1546 197.067 
4973 74.9017 77.9156 152.946 
5157 75.0508 75.267 174.771 
5040 75.0986 75.3059 158.075 